LAMMPS (1 Sep 2017)
OMP_NUM_THREADS environment is not set. Defaulting to 1 thread. (../comm.cpp:90)
  using 1 OpenMP thread(s) per MPI task
Lattice spacing in x,y,z = 1.6796 1.6796 1.6796
Created orthogonal box = (0 0 0) to (33.5919 33.5919 33.5919)
  1 by 1 by 1 MPI processor grid
Created 32000 atoms
Neighbor list info ...
  update every 20 steps, delay 0 steps, check no
  max neighbors/atom: 2000, page size: 100000
  master list distance cutoff = 2.8
  ghost atom cutoff = 2.8
  binsize = 1.4, bins = 24 24 24
  1 neighbor lists, perpetual/occasional/extra = 1 0 0
  (1) pair lj/cut, perpetual
      attributes: half, newton on
      pair build: half/bin/atomonly/newton
      stencil: half/bin/3d/newton
      bin: standard
Setting up Verlet run ...
  Unit style    : lj
  Current step  : 0
  Time step     : 0.005
Per MPI rank memory allocation (min/avg/max) = 13.82 | 13.82 | 13.82 Mbytes
Step Temp E_pair E_mol TotEng Press 
       0         1.44   -6.7733681            0   -4.6134356   -5.0197073 
     100    0.7574531   -5.7585055            0   -4.6223613   0.20726105 
     200   0.75953175   -5.7618892            0   -4.6226272   0.20910575 
     300   0.74624286    -5.741962            0   -4.6226327   0.32016436 
     400   0.74155675   -5.7343359            0   -4.6220356    0.3777989 
     500   0.73249345   -5.7206946            0   -4.6219887   0.44253023 
     600   0.72087255   -5.7029314            0   -4.6216563   0.55730354 
     700   0.71489947    -5.693532            0   -4.6212164   0.61322381 
     800   0.70876958   -5.6840594            0   -4.6209382   0.66822293 
     900   0.70799521   -5.6828388            0   -4.6208791   0.66961279 
    1000   0.70325873   -5.6750827            0   -4.6202276   0.71125869 
    1100   0.70538117   -5.6784307            0    -4.620392   0.70238169 
    1200   0.69790935   -5.6671248            0   -4.6202935   0.75656616 
    1300   0.70368357   -5.6758415            0   -4.6203492    0.7080279 
    1400   0.69917423   -5.6687615            0   -4.6200329   0.74586391 
    1500   0.69956379   -5.6696128            0   -4.6202999   0.73070843 
    1600   0.69642207   -5.6647592            0   -4.6201588   0.75411595 
    1700   0.70124769   -5.6721758            0   -4.6203371   0.72158179 
    1800   0.70148085   -5.6723394            0    -4.620151   0.73017609 
    1900   0.69810914   -5.6674101            0   -4.6202791   0.73793008 
    2000   0.69731403   -5.6659473            0   -4.6200089   0.75745759 
    2100   0.69833848   -5.6678649            0   -4.6203899   0.73378143 
    2200   0.69850903   -5.6681626            0   -4.6204318   0.73785666 
    2300   0.69962645   -5.6695584            0   -4.6201515   0.74272254 
    2400   0.69854354   -5.6680641            0   -4.6202815   0.73866423 
    2500   0.69343431   -5.6602191            0   -4.6201002    0.7808694 
    2600   0.69541015    -5.663259            0   -4.6201764   0.76095759 
    2700   0.69281927    -5.659564            0   -4.6203676   0.77519878 
    2800   0.69876783    -5.668499            0     -4.62038   0.73009962 
    2900   0.70289852   -5.6747285            0   -4.6204137   0.71256682 
    3000    0.6967497   -5.6654442            0   -4.6203523    0.7451347 
    3100   0.69794137    -5.667158            0   -4.6202787   0.74118365 
    3200    0.6950328   -5.6628488            0   -4.6203322   0.76124062 
    3300    0.6966529   -5.6653229            0   -4.6203762   0.74759085 
    3400   0.69970683   -5.6698727            0   -4.6203453   0.73384747 
    3500   0.69863924   -5.6683937            0   -4.6204676   0.74712313 
    3600   0.69553464    -5.663853            0   -4.6205837   0.76397697 
    3700   0.69811719   -5.6676871            0    -4.620544   0.73705545 
    3800   0.69849689   -5.6680684            0   -4.6203558   0.74241727 
    3900   0.69854111   -5.6681647            0   -4.6203858   0.74893119 
    4000   0.69610836   -5.6645643            0   -4.6204344   0.75896552 
    4100   0.69663052   -5.6655626            0   -4.6206495   0.74348374 
    4200   0.69740462     -5.66679            0   -4.6207157   0.74641799 
    4300   0.69722171   -5.6660242            0   -4.6202243   0.76005422 
    4400   0.69772512   -5.6671085            0   -4.6205535   0.76150338 
    4500   0.69849298   -5.6682274            0   -4.6205207   0.74498906 
    4600   0.69684978   -5.6658569            0   -4.6206149    0.7464866 
    4700   0.69768035   -5.6669664            0   -4.6204786    0.7566472 
    4800   0.69659451   -5.6654409            0   -4.6205818   0.75165429 
    4900   0.69704925   -5.6663005            0   -4.6207593   0.75073125 
    5000   0.69599407   -5.6646138            0   -4.6206553   0.75960152 
    5100   0.69973495   -5.6701769            0   -4.6206072   0.73537794 
    5200   0.69626993   -5.6648838            0   -4.6205115   0.75766619 
    5300   0.70039944   -5.6714014            0    -4.620835   0.72471917 
    5400   0.69521507    -5.663419            0    -4.620629   0.75936977 
    5500   0.69680916   -5.6660682            0   -4.6208872   0.75478995 
    5600   0.69559876   -5.6640759            0   -4.6207104   0.75732948 
    5700   0.69743632   -5.6669169            0   -4.6207951   0.75292448 
    5800   0.69881924   -5.6687176            0   -4.6205215   0.74190145 
    5900    0.7015477   -5.6730991            0   -4.6208104   0.71869686 
    6000   0.69839472    -5.668104            0   -4.6205447   0.74783536 
    6100   0.69650676   -5.6652668            0   -4.6205393   0.76921778 
    6200    0.6981025     -5.66772            0   -4.6205989   0.74716757 
    6300   0.69807424   -5.6678089            0   -4.6207303   0.74550004 
    6400   0.69776319   -5.6674345            0   -4.6208224    0.7483834 
    6500   0.69336473   -5.6606153            0   -4.6206007   0.77277481 
    6600   0.69330729    -5.660792            0   -4.6208636   0.76933958 
    6700   0.69587585   -5.6643349            0   -4.6205537   0.76250306 
    6800   0.70163066   -5.6729986            0   -4.6205856   0.73140975 
    6900   0.69890896   -5.6691031            0   -4.6207724   0.73976365 
    7000   0.69660407   -5.6656469            0   -4.6207734   0.75290291 
    7100   0.69504494    -5.663339            0   -4.6208041   0.75669334 
    7200   0.69956202   -5.6701043            0   -4.6207941   0.74012507 
    7300   0.69526074   -5.6637437            0   -4.6208852   0.76144902 
    7400   0.69883715   -5.6690711            0   -4.6208481   0.74023763 
    7500   0.69943973   -5.6700713            0   -4.6209445   0.73186355 
    7600   0.69466696   -5.6629698            0   -4.6210019   0.75988707 
    7700   0.69568494   -5.6642211            0   -4.6207263   0.75272554 
    7800    0.6959778   -5.6648928            0   -4.6209588    0.7557151 
    7900   0.69680509     -5.66616            0   -4.6209851     0.755356 
    8000   0.69749909    -5.667215            0    -4.620999   0.73899227 
    8100   0.69672185   -5.6658881            0    -4.620838   0.75007585 
    8200   0.70102364   -5.6724476            0    -4.620945   0.73440123 
    8300   0.69530739   -5.6637972            0   -4.6208687   0.75879425 
    8400   0.69675476    -5.665962            0   -4.6208625   0.76372568 
    8500   0.70073755   -5.6722834            0     -4.62121   0.71242496 
    8600   0.69587763   -5.6648917            0   -4.6211079    0.7545333 
    8700   0.69507534   -5.6634994            0    -4.620919   0.75914438 
    8800   0.69962967   -5.6704739            0   -4.6210621   0.73749352 
    8900   0.69915578   -5.6698609            0     -4.62116    0.7261613 
    9000   0.69725477   -5.6669123            0   -4.6210628   0.74229503 
    9100    0.6978927   -5.6679781            0   -4.6211718   0.74176124 
    9200   0.69627133   -5.6654865            0   -4.6211122    0.7567899 
    9300   0.69492241   -5.6634735            0   -4.6211224   0.75519196 
    9400   0.69715664   -5.6667291            0   -4.6210268   0.74627899 
    9500    0.7009412   -5.6723716            0   -4.6209927   0.72445796 
    9600    0.6974826   -5.6672715            0   -4.6210803   0.74657233 
    9700   0.69386227   -5.6619357            0   -4.6211748    0.7674554 
    9800   0.69677937   -5.6665333            0   -4.6213969   0.74912456 
    9900   0.69208617   -5.6591705            0   -4.6210737   0.77907938 
   10000   0.69491566   -5.6634238            0   -4.6210829   0.76610753 
   10100   0.69673114   -5.6662169            0   -4.6211528   0.75925308 
   10200   0.69945533    -5.670452            0   -4.6213018   0.74210915 
   10300   0.69607804   -5.6655387            0   -4.6214542     0.748771 
   10400   0.69398969   -5.6624328            0   -4.6214808   0.76271852 
   10500   0.69828818   -5.6685416            0    -4.621142   0.74174758 
   10600   0.69764589   -5.6680062            0   -4.6215701   0.74131444 
   10700   0.69881204   -5.6696429            0   -4.6214576   0.72754286 
   10800   0.69377856   -5.6619607            0   -4.6213254    0.7661612 
   10900   0.69695876   -5.6666716            0   -4.6212661   0.75026023 
   11000   0.69891753   -5.6696861            0   -4.6213426   0.73471143 
   11100   0.69775521   -5.6680074            0   -4.6214072   0.75581196 
   11200   0.70041632   -5.6718597            0   -4.6212681   0.72287339 
   11300   0.69808098   -5.6686391            0   -4.6215504   0.74092685 
   11400     0.696737   -5.6665429            0     -4.62147   0.74887145 
   11500    0.6976968   -5.6679129            0   -4.6214004   0.74759282 
   11600    0.6974657   -5.6675711            0   -4.6214052   0.75069618 
   11700   0.69704292   -5.6670343            0   -4.6215026   0.74692204 
   11800   0.69702552   -5.6668416            0    -4.621336   0.74550574 
   11900   0.69494179   -5.6639026            0   -4.6215225   0.75828093 
   12000   0.70121234   -5.6734265            0   -4.6216409   0.71602522 
   12100   0.69812533   -5.6686986            0   -4.6215433   0.73451234 
   12200   0.69829731   -5.6689994            0   -4.6215862   0.74013751 
   12300   0.69858015   -5.6695528            0   -4.6217153   0.73693126 
   12400   0.69780793   -5.6683122            0    -4.621633   0.73631211 
   12500   0.69707358   -5.6671401            0   -4.6215624   0.75236418 
   12600   0.69365028   -5.6619306            0   -4.6214876   0.77169314 
   12700   0.69667259   -5.6667848            0   -4.6218086   0.75774902 
   12800   0.69903111   -5.6702587            0   -4.6217448    0.7302022 
   12900   0.69648478   -5.6664351            0   -4.6217406   0.74860835 
   13000   0.69992468   -5.6715924            0   -4.6217382   0.72099182 
   13100   0.69625274   -5.6659112            0   -4.6215648   0.75368923 
   13200    0.6965384   -5.6667299            0   -4.6219549   0.73826925 
   13300   0.69694375   -5.6670862            0   -4.6217033   0.73759565 
   13400   0.69350423   -5.6619381            0   -4.6217142   0.77727418 
   13500   0.69512079   -5.6643908            0   -4.6217422   0.75178482 
   13600   0.69740075   -5.6678068            0   -4.6217384   0.73654214 
   13700   0.69597078   -5.6655782            0   -4.6216547   0.75954915 
   13800   0.69589555   -5.6657825            0   -4.6219718   0.75150951 
   13900   0.69599283   -5.6653385            0   -4.6213819   0.76216831 
   14000   0.69772536   -5.6684224            0   -4.6218671   0.74216768 
   14100   0.69461249   -5.6636682            0    -4.621782   0.75626096 
   14200    0.6977121   -5.6683192            0   -4.6217838   0.75019597 
   14300   0.69931859   -5.6707016            0   -4.6217565   0.72797254 
   14400   0.69750256   -5.6682211            0   -4.6219999   0.74123667 
   14500   0.69489941   -5.6642118            0   -4.6218952   0.75672525 
   14600   0.69685866   -5.6670373            0    -4.621782   0.74605107 
   14700   0.69583581   -5.6654765            0   -4.6217554    0.7510277 
   14800    0.6956769   -5.6655711            0   -4.6220884   0.75633329 
   14900    0.6983609   -5.6696711            0   -4.6221625   0.73098775 
   15000    0.6994475   -5.6712981            0   -4.6221597   0.72710161 
   15100   0.69637211   -5.6664996            0   -4.6219741   0.75425115 
   15200   0.69620655    -5.666228            0   -4.6219508   0.75312842 
   15300   0.69560444   -5.6654706            0   -4.6220966   0.75326515 
   15400   0.69558813   -5.6651402            0   -4.6217906   0.75159195 
   15500   0.69857089   -5.6700392            0   -4.6222156   0.72152976 
   15600   0.69760044   -5.6686589            0    -4.622291   0.73158274 
   15700   0.69668439   -5.6668689            0    -4.621875   0.75416807 
   15800   0.69897201   -5.6703106            0   -4.6218853   0.73509156 
   15900   0.69878679   -5.6701304            0   -4.6219829   0.72006111 
   16000   0.69731632   -5.6682036            0   -4.6222618   0.74217815 
   16100   0.69506334   -5.6644443            0   -4.6218819   0.75721643 
   16200    0.7016677   -5.6746819            0   -4.6222132   0.71064506 
   16300   0.69353904   -5.6627324            0   -4.6224564   0.75525447 
   16400   0.69778075   -5.6687555            0   -4.6221171    0.7351449 
   16500   0.69210631   -5.6602943            0   -4.6221672    0.7726177 
   16600   0.69930543    -5.671119            0   -4.6221936   0.72648105 
   16700   0.69924374   -5.6710002            0   -4.6221673   0.73111474 
   16800   0.69956591   -5.6715633            0   -4.6222473   0.73016658 
   16900    0.6957875   -5.6657398            0   -4.6220911   0.75916579 
   17000   0.69569201   -5.6659401            0   -4.6224347   0.75556057 
   17100   0.69876322   -5.6700598            0   -4.6219478   0.73364858 
   17200   0.69978655   -5.6719619            0   -4.6223149   0.71910024 
   17300   0.69918261   -5.6709352            0    -4.622194   0.73195882 
   17400   0.69449376   -5.6640731            0    -4.622365   0.75720687 
   17500    0.6946063    -5.664256            0   -4.6223791   0.76098496 
   17600   0.69897691    -5.670905            0   -4.6224724   0.72704304 
   17700   0.69417064    -5.663455            0   -4.6222316   0.76301398 
   17800   0.69531346   -5.6654885            0   -4.6225509   0.74564793 
   17900    0.6991422   -5.6709275            0    -4.622247   0.72444424 
   18000    0.6947965   -5.6643438            0   -4.6221816   0.76034053 
   18100   0.69490363   -5.6646273            0   -4.6223045    0.7556759 
   18200   0.69917145     -5.67101            0   -4.6222856   0.72257773 
   18300   0.69609108    -5.666515            0    -4.622411   0.75019834 
   18400   0.69686567   -5.6675521            0   -4.6222863   0.73955236 
   18500   0.69646501   -5.6670406            0   -4.6223757   0.74678189 
   18600   0.69418715   -5.6637101            0    -4.622462   0.76903671 
   18700   0.69463547   -5.6640524            0   -4.6221318   0.76280263 
   18800   0.69539918    -5.665634            0   -4.6225679   0.75196278 
   18900    0.6966689    -5.667492            0   -4.6225213   0.74584997 
   19000   0.69955027   -5.6719032            0   -4.6226106   0.72185423 
   19100   0.69400488   -5.6635474            0   -4.6225726   0.75287928 
   19200   0.69565436   -5.6658681            0   -4.6224192   0.74741471 
   19300   0.69704974   -5.6680981            0   -4.6225562   0.73832453 
   19400   0.69676257   -5.6676184            0   -4.6225072   0.73873534 
   19500   0.69589112   -5.6661977            0   -4.6223936   0.75223762 
   19600   0.69608642   -5.6667989            0   -4.6227019   0.74395087 
   19700   0.69679569   -5.6676801            0   -4.6225192   0.74167862 
   19800   0.69898995   -5.6708778            0   -4.6224256   0.72480377 
   19900   0.69586559   -5.6663237            0    -4.622558   0.74106297 
   20000   0.69232763   -5.6609622            0   -4.6225032   0.77146017 
Loop time of 368.633 on 1 procs for 20000 steps with 32000 atoms

Performance: 23437.969 tau/day, 54.255 timesteps/s
100.0% CPU use with 1 MPI tasks x 1 OpenMP threads

MPI task timing breakdown:
Section |  min time  |  avg time  |  max time  |%varavg| %total
---------------------------------------------------------------
Pair    | 315.03     | 315.03     | 315.03     |   0.0 | 85.46
Neigh   | 43.512     | 43.512     | 43.512     |   0.0 | 11.80
Comm    | 3.2815     | 3.2815     | 3.2815     |   0.0 |  0.89
Output  | 0.017725   | 0.017725   | 0.017725   |   0.0 |  0.00
Modify  | 5.7962     | 5.7962     | 5.7962     |   0.0 |  1.57
Other   |            | 0.9997     |            |       |  0.27

Nlocal:    32000 ave 32000 max 32000 min
Histogram: 1 0 0 0 0 0 0 0 0 0
Nghost:    18779 ave 18779 max 18779 min
Histogram: 1 0 0 0 0 0 0 0 0 0
Neighs:    1.20018e+06 ave 1.20018e+06 max 1.20018e+06 min
Histogram: 1 0 0 0 0 0 0 0 0 0

Total # of neighbors = 1200182
Ave neighs/atom = 37.5057
Neighbor list builds = 1000
Dangerous builds not checked
Total wall time: 0:06:08
