LAMMPS (1 Sep 2017)
OMP_NUM_THREADS environment is not set. Defaulting to 1 thread. (../comm.cpp:90)
  using 1 OpenMP thread(s) per MPI task
using multi-threaded neighbor list subroutines
set 4 OpenMP thread(s) per MPI task
using multi-threaded neighbor list subroutines
Lattice spacing in x,y,z = 1.6796 1.6796 1.6796
Created orthogonal box = (0 0 0) to (33.5919 33.5919 33.5919)
  1 by 2 by 2 MPI processor grid
Created 32000 atoms
Last active /omp style is pair_style lj/cut/omp
Neighbor list info ...
  update every 20 steps, delay 0 steps, check no
  max neighbors/atom: 2000, page size: 100000
  master list distance cutoff = 2.8
  ghost atom cutoff = 2.8
  binsize = 1.4, bins = 24 24 24
  1 neighbor lists, perpetual/occasional/extra = 1 0 0
  (1) pair lj/cut/omp, perpetual
      attributes: half, newton on, omp
      pair build: half/bin/atomonly/newton/omp
      stencil: half/bin/3d/newton
      bin: standard
Setting up Verlet run ...
  Unit style    : lj
  Current step  : 0
  Time step     : 0.005
Per MPI rank memory allocation (min/avg/max) = 8.883 | 8.883 | 8.883 Mbytes
Step Temp E_pair E_mol TotEng Press 
       0         1.44   -6.7733681            0   -4.6134356   -5.0197073 
     100    0.7574531   -5.7585055            0   -4.6223613   0.20726105 
     200   0.75953175   -5.7618892            0   -4.6226272   0.20910575 
     300   0.74624286    -5.741962            0   -4.6226327   0.32016436 
     400   0.74155675   -5.7343359            0   -4.6220356    0.3777989 
     500   0.73249345   -5.7206946            0   -4.6219887   0.44253023 
     600   0.72087255   -5.7029314            0   -4.6216563   0.55730354 
     700   0.71489947    -5.693532            0   -4.6212164   0.61322381 
     800   0.70876958   -5.6840594            0   -4.6209382   0.66822293 
     900   0.70799521   -5.6828388            0   -4.6208791   0.66961276 
    1000   0.70325874   -5.6750827            0   -4.6202276   0.71125868 
    1100   0.70538097   -5.6784304            0   -4.6203921   0.70238205 
    1200   0.69790796   -5.6671233            0    -4.620294   0.75657351 
    1300    0.7036837   -5.6758497            0   -4.6203572   0.70801969 
    1400   0.69921891   -5.6688222            0   -4.6200266   0.74564015 
    1500   0.69925846   -5.6691179            0    -4.620263   0.73275406 
    1600   0.69645911   -5.6647515            0   -4.6200955   0.75220285 
    1700   0.70004348   -5.6703012            0   -4.6202688   0.72640687 
    1800   0.70026968   -5.6707675            0   -4.6203959    0.7371775 
    1900    0.6982876   -5.6675498            0   -4.6201511   0.74240077 
    2000   0.69512108   -5.6629039            0   -4.6202548   0.77761032 
    2100   0.70274519   -5.6742446            0   -4.6201598   0.71803079 
    2200   0.69643865   -5.6648895            0   -4.6202641   0.76063588 
    2300   0.69729435   -5.6661567            0   -4.6202479   0.75648576 
    2400   0.69984395   -5.6701939            0   -4.6204608   0.72997536 
    2500   0.69797084   -5.6673564            0   -4.6204328   0.75003298 
    2600     0.701096   -5.6718639            0   -4.6202528   0.72049227 
    2700   0.69472261   -5.6623515            0   -4.6203001   0.76712672 
    2800   0.70125319    -5.672078            0   -4.6202311   0.72892741 
    2900   0.69516118   -5.6631601            0   -4.6204509   0.76097248 
    3000   0.69964596   -5.6698513            0   -4.6204152   0.73497385 
    3100    0.6961995   -5.6649298            0   -4.6206632   0.75704032 
    3200   0.69398625   -5.6612791            0   -4.6203323   0.77529917 
    3300   0.69797218   -5.6674929            0   -4.6205673   0.74713679 
    3400    0.6958245   -5.6641916            0   -4.6204874   0.75445797 
    3500   0.69710833   -5.6660183            0   -4.6203884   0.75990326 
    3600   0.69439772   -5.6619347            0   -4.6203707   0.77005255 
    3700   0.69656875   -5.6650901            0   -4.6202697   0.75153512 
    3800   0.69702611   -5.6658159            0   -4.6203094   0.75875599 
    3900   0.69940634   -5.6696525            0   -4.6205758   0.73732045 
    4000   0.69821335   -5.6678676            0   -4.6205804   0.72573894 
    4100    0.6967727   -5.6657372            0   -4.6206108   0.74292485 
    4200   0.69863221   -5.6684436            0   -4.6205281   0.74696006 
    4300   0.69788813   -5.6673214            0   -4.6205219   0.74305403 
    4400   0.69397509   -5.6613046            0   -4.6203745   0.76563822 
    4500    0.6985016   -5.6683496            0   -4.6206299   0.74676056 
    4600   0.69849886   -5.6682833            0   -4.6205677   0.75211558 
    4700   0.69904466   -5.6689825            0   -4.6204482   0.73772248 
    4800   0.69814592   -5.6678638            0   -4.6206776   0.74817964 
    4900     0.694952   -5.6628778            0   -4.6204824   0.77653559 
    5000   0.69527737   -5.6633647            0   -4.6204812   0.78246938 
    5100   0.69643785   -5.6651176            0   -4.6204935   0.76309307 
    5200   0.69373311   -5.6610628            0   -4.6204957   0.79117818 
    5300   0.69411087   -5.6617628            0   -4.6206291   0.77569888 
    5400   0.69496311   -5.6630428            0   -4.6206307   0.76422334 
    5500   0.69716346   -5.6663839            0   -4.6206714   0.76668157 
    5600   0.70123657   -5.6725217            0   -4.6206997   0.73214749 
    5700   0.70002533   -5.6709439            0   -4.6209387   0.73150677 
    5800   0.69672108    -5.665808            0    -4.620759   0.75385893 
    5900   0.69856727   -5.6686869            0   -4.6208687   0.74654372 
    6000   0.69433605   -5.6620745            0    -4.620603   0.76686572 
    6100   0.69590655   -5.6643756            0   -4.6205484   0.76305095 
    6200   0.69738007   -5.6668658            0   -4.6208283   0.74434785 
    6300   0.70069557   -5.6717605            0     -4.62075   0.73410629 
    6400   0.69727694   -5.6667102            0   -4.6208275   0.74554698 
    6500   0.69989867     -5.67069            0   -4.6208748   0.73063311 
    6600   0.69829919   -5.6682319            0   -4.6208158   0.73437262 
    6700   0.69302083   -5.6603806            0   -4.6208819    0.7758961 
    6800   0.69434142   -5.6625623            0   -4.6210827   0.76597571 
    6900   0.69891792   -5.6692421            0   -4.6208979   0.74196092 
    7000    0.6963865   -5.6652205            0   -4.6206734   0.75774043 
    7100   0.69707678   -5.6664446            0   -4.6208621   0.74858882 
    7200   0.69942907   -5.6697685            0   -4.6206577   0.73339445 
    7300   0.70129946    -5.672912            0   -4.6209957   0.73896212 
    7400   0.69879741   -5.6690537            0   -4.6208903   0.74459923 
    7500   0.69564358   -5.6643016            0   -4.6208688   0.77221413 
    7600   0.69337337   -5.6609993            0   -4.6209718   0.77248752 
    7700   0.69811764   -5.6681721            0   -4.6210284   0.73380607 
    7800   0.69819072   -5.6681625            0   -4.6209092   0.74091807 
    7900   0.69368088   -5.6616503            0   -4.6211614   0.76455561 
    8000   0.69878631   -5.6691828            0   -4.6210361    0.7303315 
    8100   0.69978643   -5.6707253            0   -4.6210784    0.7124067 
    8200   0.69525948   -5.6638641            0   -4.6210075   0.75360401 
    8300   0.69428401   -5.6625166            0   -4.6211232   0.74622287 
    8400   0.69821522    -5.668318            0   -4.6210279   0.74647332 
    8500   0.69566336   -5.6645526            0   -4.6210902   0.75260132 
    8600   0.69521737   -5.6637433            0   -4.6209499   0.75081445 
    8700   0.69547754   -5.6641107            0    -4.620927   0.75689915 
    8800   0.69824511   -5.6685441            0   -4.6212091    0.7374181 
    8900   0.70006445   -5.6712251            0   -4.6211612   0.73457579 
    9000   0.69929926   -5.6698053            0   -4.6208892   0.73900425 
    9100   0.69370088   -5.6617708            0    -4.621252   0.76023723 
    9200   0.69935415   -5.6701183            0   -4.6211199   0.74370488 
    9300   0.69858346   -5.6689977            0   -4.6211552   0.75270056 
    9400    0.7010108   -5.6725783            0   -4.6210949   0.71849914 
    9500   0.69822401   -5.6686833            0   -4.6213801   0.73806898 
    9600   0.69641957   -5.6659459            0   -4.6213492   0.74362069 
    9700   0.69265748   -5.6600869            0   -4.6211332    0.7759115 
    9800   0.69416038   -5.6622877            0   -4.6210796   0.77471904 
    9900   0.69611981   -5.6653757            0   -4.6212286   0.75074666 
   10000    0.6974131   -5.6672624            0   -4.6211755   0.74807701 
   10100   0.69700433   -5.6669523            0   -4.6214785   0.74164593 
   10200   0.70010605   -5.6714491            0   -4.6213228   0.72924452 
   10300   0.69332122   -5.6612004            0    -4.621251   0.77410745 
   10400   0.69568185   -5.6647031            0   -4.6212129   0.74684177 
   10500   0.69717646   -5.6671832            0   -4.6214512   0.73709896 
   10600     0.697223   -5.6672584            0   -4.6214566    0.7457338 
   10700   0.69767559   -5.6679595            0   -4.6214788   0.73591838 
   10800   0.69776529   -5.6677822            0    -4.621167   0.74624161 
   10900   0.69708658   -5.6671195            0   -4.6215223     0.744922 
   11000    0.6973223   -5.6671601            0   -4.6212093   0.75135206 
   11100   0.69596606   -5.6653852            0   -4.6214687   0.75655839 
   11200   0.69457014   -5.6633236            0   -4.6215009   0.76726449 
   11300   0.69815857   -5.6687762            0   -4.6215711   0.73092234 
   11400   0.69644417   -5.6662316            0    -4.621598   0.74428975 
   11500   0.69690391   -5.6667643            0   -4.6214411   0.74544094 
   11600   0.69792349   -5.6684603            0   -4.6216078   0.73619888 
   11700   0.69494668   -5.6639663            0   -4.6215788   0.75203681 
   11800   0.69947337   -5.6707655            0   -4.6215882   0.73176946 
   11900   0.69654231   -5.6663904            0   -4.6216096   0.75304249 
   12000   0.69923682   -5.6705569            0   -4.6217344   0.72656893 
   12100   0.69680417   -5.6667204            0   -4.6215468   0.75374212 
   12200   0.69520302   -5.6642394            0   -4.6214675   0.75439722 
   12300   0.70006932   -5.6717028            0   -4.6216316   0.72971589 
   12400   0.69365607   -5.6621612            0   -4.6217096   0.75748516 
   12500   0.69753468   -5.6680606            0   -4.6217913   0.72880865 
   12600   0.69646446    -5.666207            0   -4.6215429   0.74504731 
   12700   0.69155356   -5.6588669            0    -4.621569   0.78080404 
   12800   0.69785644   -5.6682791            0   -4.6215271   0.75115251 
   12900   0.69770446   -5.6683364            0   -4.6218124    0.7433013 
   13000   0.69501023   -5.6640969            0   -4.6216141   0.75194131 
   13100   0.70102603   -5.6730289            0   -4.6215227   0.72556055 
   13200   0.69357751   -5.6616093            0   -4.6212755   0.77674296 
   13300   0.69913813   -5.6702665            0    -4.621592   0.73644564 
   13400   0.69787906    -5.668427            0   -4.6216411   0.73417238 
   13500   0.69598956   -5.6656158            0   -4.6216641   0.75942331 
   13600   0.69807211   -5.6686779            0   -4.6216025   0.74325437 
   13700   0.69516524   -5.6643721            0   -4.6216568   0.76118685 
   13800   0.69622404   -5.6661652            0   -4.6218618   0.75055511 
   13900   0.69513179   -5.6644655            0   -4.6218004    0.7600447 
   14000   0.69663826   -5.6667048            0   -4.6217801   0.74690651 
   14100   0.70016976   -5.6724057            0   -4.6221839   0.72250645 
   14200   0.69401231   -5.6627473            0   -4.6217614   0.76369391 
   14300   0.70050078   -5.6725965            0   -4.6218782   0.71807845 
   14400   0.69570454   -5.6652558            0   -4.6217316   0.74634254 
   14500   0.69424809   -5.6630538            0   -4.6217142    0.7614118 
   14600    0.6974162   -5.6678987            0    -4.621807   0.74448953 
   14700   0.69773915    -5.668625            0    -4.622049   0.74695097 
   14800   0.69520476   -5.6644806            0   -4.6217061   0.75500194 
   14900     0.695178   -5.6648086            0   -4.6220742    0.7498221 
   15000   0.69921634   -5.6705336            0   -4.6217419   0.73536746 
   15100   0.69616991   -5.6662118            0   -4.6219896   0.74634142 
   15200   0.69546428   -5.6649389            0   -4.6217751   0.76031931 
   15300   0.69792447   -5.6687744            0   -4.6219204   0.74840602 
   15400   0.69522495   -5.6646242            0   -4.6218194   0.75812736 
   15500    0.6997905   -5.6716515            0   -4.6219986    0.7270065 
   15600   0.69337848    -5.661992            0   -4.6219568   0.77299221 
   15700   0.69674436   -5.6672804            0   -4.6221965   0.74370952 
   15800   0.69543626   -5.6650816            0   -4.6219598   0.75793226 
   15900   0.69772576    -5.668514            0    -4.621958    0.7403099 
   16000     0.698494   -5.6695505            0   -4.6218422   0.73645175 
   16100   0.69461888    -5.663815            0   -4.6219193   0.77455844 
   16200   0.69860407   -5.6699714            0    -4.622098   0.73231764 
   16300   0.69644346   -5.6666367            0   -4.6220041   0.75044825 
   16400   0.69542633   -5.6651917            0   -4.6220848   0.74622551 
   16500   0.69673193   -5.6670516            0   -4.6219864   0.74110256 
   16600   0.69514076   -5.6647389            0   -4.6220603   0.75499636 
   16700   0.69553851   -5.6654427            0   -4.6221676    0.7455853 
   16800   0.69410019   -5.6630688            0    -4.621951   0.75910261 
   16900   0.69856865   -5.6699917            0   -4.6221715   0.73622069 
   17000   0.69939564   -5.6712519            0   -4.6221913   0.71701483 
   17100   0.69589254   -5.6661575            0   -4.6223513    0.7447643 
   17200   0.69668057   -5.6671296            0   -4.6221414   0.74420792 
   17300   0.69661051    -5.666992            0   -4.6221088   0.74064626 
   17400   0.69463198   -5.6641294            0   -4.6222139   0.75497066 
   17500   0.69730469   -5.6680733            0    -4.622149    0.7411133 
   17600   0.69916891   -5.6708362            0   -4.6221156   0.72864495 
   17700   0.69373822    -5.662711            0   -4.6221362   0.76886158 
   17800   0.69493182   -5.6645172            0   -4.6221521   0.75621055 
   17900   0.69505333   -5.6647164            0    -4.622169   0.77182859 
   18000   0.69983228   -5.6718844            0   -4.6221688   0.73218762 
   18100    0.6981891   -5.6698432            0   -4.6225923    0.7339639 
   18200   0.69627557   -5.6666698            0    -4.622289   0.74992412 
   18300   0.70048877   -5.6729627            0   -4.6222623   0.72385612 
   18400   0.69968315    -5.671888            0   -4.6223961   0.72279638 
   18500   0.69850542   -5.6700725            0   -4.6223471    0.7454459 
   18600   0.69336127   -5.6622512            0   -4.6222418   0.75976179 
   18700   0.69425261   -5.6634518            0   -4.6221054   0.76661743 
   18800   0.69675445   -5.6675511            0   -4.6224521   0.74316346 
   18900   0.69801707   -5.6696778            0   -4.6226849    0.7277605 
   19000    0.6987148   -5.6704736            0   -4.6224341   0.72876456 
   19100   0.69391594   -5.6630645            0   -4.6222232   0.76936592 
   19200   0.69495661   -5.6647891            0   -4.6223868   0.75044897 
   19300   0.69777734   -5.6691199            0   -4.6224866   0.73088551 
   19400     0.696199   -5.6668914            0   -4.6226256   0.75222581 
   19500   0.69944055   -5.6713966            0   -4.6222686   0.73210856 
   19600   0.69513605   -5.6649727            0   -4.6223013   0.74526061 
   19700   0.69891102   -5.6707631            0   -4.6224293   0.72390471 
   19800   0.69345214   -5.6626191            0   -4.6224734   0.76966349 
   19900    0.6971137   -5.6682837            0   -4.6226458   0.74088238 
   20000   0.69272049   -5.6615324            0   -4.6224841   0.77101259 
Loop time of 86.0474 on 16 procs for 20000 steps with 32000 atoms

Performance: 100409.772 tau/day, 232.430 timesteps/s
293.4% CPU use with 4 MPI tasks x 4 OpenMP threads

MPI task timing breakdown:
Section |  min time  |  avg time  |  max time  |%varavg| %total
---------------------------------------------------------------
Pair    | 19.345     | 32.426     | 44.688     | 205.3 | 37.68
Neigh   | 3.3995     | 6.4945     | 11.199     | 123.1 |  7.55
Comm    | 15.298     | 41.961     | 62.244     | 300.0 | 48.77
Output  | 0.054653   | 0.10831    | 0.13483    |   9.6 |  0.13
Modify  | 0.91003    | 5.0247     | 14.747     | 254.3 |  5.84
Other   |            | 0.03214    |            |       |  0.04

Nlocal:    8000 ave 8038 max 7964 min
Histogram: 1 0 0 1 0 1 0 0 0 1
Nghost:    8590 ave 8604 max 8573 min
Histogram: 1 0 1 0 0 0 0 0 0 2
Neighs:    300139 ave 302472 max 298510 min
Histogram: 2 0 0 0 0 0 1 0 0 1

Total # of neighbors = 1200557
Ave neighs/atom = 37.5174
Neighbor list builds = 1000
Dangerous builds not checked
Total wall time: 0:01:26
